 Output coordinates in a.u. (scale by  1.000000000 to convert to a.u.)

  No.       Tag          Charge          X              Y              Z
 ---- ---------------- ---------- -------------- -------------- --------------
    1 O                    8.0000     0.00000000     0.00000000     0.22143053
    2 H                    1.0000    -1.43042809     0.00000000    -0.88572213
    3 H                    1.0000     1.43042809     0.00000000    -0.88572213

         Total DFT energy =      -76.298052749713

                       DFT Final Molecular Orbital Analysis
                       ------------------------------------

 Vector    1  Occ=2.000000D+00  E=-1.874928D+01  Symmetry=a1

 Vector    2  Occ=2.000000D+00  E=-9.282741D-01  Symmetry=a1

 Vector    3  Occ=2.000000D+00  E=-4.755198D-01  Symmetry=b1

 Vector    4  Occ=2.000000D+00  E=-2.945668D-01  Symmetry=a1

 Vector    5  Occ=2.000000D+00  E=-2.277744D-01  Symmetry=b2

 Vector    6  Occ=0.000000D+00  E= 3.627076D-02  Symmetry=a1

 Vector    7  Occ=0.000000D+00  E= 1.236001D-01  Symmetry=b1

 Vector    8  Occ=0.000000D+00  E= 7.677496D-01  Symmetry=b1

 Vector    9  Occ=0.000000D+00  E= 8.222425D-01  Symmetry=a1

 Vector   10  Occ=0.000000D+00  E= 8.418732D-01  Symmetry=b2

 Vector   11  Occ=0.000000D+00  E= 9.118524D-01  Symmetry=a1

 Vector   12  Occ=0.000000D+00  E= 1.015017D+00  Symmetry=b1

 Vector   13  Occ=0.000000D+00  E= 1.368932D+00  Symmetry=a1

     Multipole analysis of the density
     ---------------------------------

     L   x y z        total         alpha         beta         nuclear
     -   - - -        -----         -----         ----         -------
     0   0 0 0     -0.000000     -5.000000     -5.000000     10.000000

     1   1 0 0      0.000000      0.000000      0.000000      0.000000
     1   0 1 0      0.000000      0.000000      0.000000      0.000000
     1   0 0 1     -0.953441     -0.476721     -0.476721      0.000000

     2   2 0 0     -3.227632     -3.659940     -3.659940      4.092249
     2   1 1 0      0.000000      0.000000      0.000000      0.000000
     2   1 0 1      0.000000      0.000000      0.000000      0.000000
     2   0 2 0     -5.339885     -2.669943     -2.669943      0.000000
     2   0 1 1      0.000000      0.000000      0.000000      0.000000

 Total times  cpu:        0.1s     wall:        0.2s
